LAMMPS data file. CGCMM Style. atom_style full. Created by charmm2lammps v1.9.1 on Do 23. Mai 18:34:39 UTC 2019

        6196  atoms
        3471  bonds
        1794  angles
         132  dihedrals
           0  impropers

          11  atom types
           9  bond types
          13  angle types
          18  dihedral types
           0  improper types

       0.591       35.169 xlo xhi
       0.907       35.843 ylo yhi
      -0.635       59.365 zlo zhi

Masses

       1      1.008  # HAL2
       2      1.008  # HAL3
       3     12.011  # CTL2
       4     12.011  # CTL3
       5    15.9994  # OSL
       6    15.9994  # O2L
       7      32.06  # SL
       8      1.008  # HT
       9    15.9994  # OT
      10   22.98977  # SOD
      11   196.9665  # AU

Pair Coeffs # lj/charmm/coul/long

       1            0.028    2.38760856462            0.028    2.38760856462  # HAL2
       2            0.024    2.38760856462            0.024    2.38760856462  # HAL3
       3            0.056    3.58141284692             0.01    3.38541512893  # CTL2
       4            0.078    3.63486677001             0.01    3.38541512893  # CTL3
       5              0.1    2.93996576986              0.1    2.93996576986  # OSL
       6             0.12    3.02905564168             0.12    3.02905564168  # O2L
       7             0.47    3.74177461619             0.47    3.74177461619  # SL
       8            0.046   0.400013524445            0.046   0.400013524445  # HT
       9           0.1521    3.15057422683           0.1521    3.15057422683  # OT
      10           0.0469    2.51367073323           0.0469    2.51367073323  # SOD
      11             5.29    2.62904211723             5.29    2.62904211723  # AU

Atoms # full

       1       1    11         0             1.44             0.83                0  # AU
       2       2    11         0             4.32             0.83                0  # AU
       3       3    11         0              7.2             0.83                0  # AU
       4       4    11         0            10.08             0.83                0  # AU
       5       5    11         0            12.97             0.83                0  # AU
       6       6    11         0            15.85             0.83                0  # AU
       7       7    11         0            18.73             0.83                0  # AU
       8       8    11         0            21.61             0.83                0  # AU
       9       9    11         0            24.49             0.83                0  # AU
      10      10    11         0            27.37             0.83                0  # AU
      11      11    11         0            30.26             0.83                0  # AU
      12      12    11         0            33.14             0.83                0  # AU
      13      13    11         0                0             3.33                0  # AU
      14      14    11         0             2.88             3.33                0  # AU
      15      15    11         0             5.76             3.33                0  # AU
      16      16    11         0             8.64             3.33                0  # AU
      17      17    11         0            11.53             3.33                0  # AU
      18      18    11         0            14.41             3.33                0  # AU
      19      19    11         0            17.29             3.33                0  # AU
      20      20    11         0            20.17             3.33                0  # AU
      21      21    11         0            23.05             3.33                0  # AU
      22      22    11         0            25.93             3.33                0  # AU
      23      23    11         0            28.82             3.33                0  # AU
      24      24    11         0             31.7             3.33                0  # AU
      25      25    11         0             1.44             5.82                0  # AU
      26      26    11         0             4.32             5.82                0  # AU
      27      27    11         0              7.2             5.82                0  # AU
      28      28    11         0            10.08             5.82                0  # AU
      29      29    11         0            12.97             5.82                0  # AU
      30      30    11         0            15.85             5.82                0  # AU
      31      31    11         0            18.73             5.82                0  # AU
      32      32    11         0            21.61             5.82                0  # AU
      33      33    11         0            24.49             5.82                0  # AU
      34      34    11         0            27.37             5.82                0  # AU
      35      35    11         0            30.26             5.82                0  # AU
      36      36    11         0            33.14             5.82                0  # AU
      37      37    11         0                0             8.32                0  # AU
      38      38    11         0             2.88             8.32                0  # AU
      39      39    11         0             5.76             8.32                0  # AU
      40      40    11         0             8.64             8.32                0  # AU
      41      41    11         0            11.53             8.32                0  # AU
      42      42    11         0            14.41             8.32                0  # AU
      43      43    11         0            17.29             8.32                0  # AU
      44      44    11         0            20.17             8.32                0  # AU
      45      45    11         0            23.05             8.32                0  # AU
      46      46    11         0            25.93             8.32                0  # AU
      47      47    11         0            28.82             8.32                0  # AU
      48      48    11         0             31.7             8.32                0  # AU
      49      49    11         0             1.44            10.81                0  # AU
      50      50    11         0             4.32            10.81                0  # AU
      51      51    11         0              7.2            10.81                0  # AU
      52      52    11         0            10.08            10.81                0  # AU
      53      53    11         0            12.97            10.81                0  # AU
      54      54    11         0            15.85            10.81                0  # AU
      55      55    11         0            18.73            10.81                0  # AU
      56      56    11         0            21.61            10.81                0  # AU
      57      57    11         0            24.49            10.81                0  # AU
      58      58    11         0            27.37            10.81                0  # AU
      59      59    11         0            30.26            10.81                0  # AU
      60      60    11         0            33.14            10.81                0  # AU
      61      61    11         0                0            13.31                0  # AU
      62      62    11         0             2.88            13.31                0  # AU
      63      63    11         0             5.76            13.31                0  # AU
      64      64    11         0             8.64            13.31                0  # AU
      65      65    11         0            11.53            13.31                0  # AU
      66      66    11         0            14.41            13.31                0  # AU
      67      67    11         0            17.29            13.31                0  # AU
      68      68    11         0            20.17            13.31                0  # AU
      69      69    11         0            23.05            13.31                0  # AU
      70      70    11         0            25.93            13.31                0  # AU
      71      71    11         0            28.82            13.31                0  # AU
      72      72    11         0             31.7            13.31                0  # AU
      73      73    11         0             1.44             15.8                0  # AU
      74      74    11         0             4.32             15.8                0  # AU
      75      75    11         0              7.2             15.8                0  # AU
      76      76    11         0            10.08             15.8                0  # AU
      77      77    11         0            12.97             15.8                0  # AU
      78      78    11         0            15.85             15.8                0  # AU
      79      79    11         0            18.73             15.8                0  # AU
      80      80    11         0            21.61             15.8                0  # AU
      81      81    11         0            24.49             15.8                0  # AU
      82      82    11         0            27.37             15.8                0  # AU
      83      83    11         0            30.26             15.8                0  # AU
      84      84    11         0            33.14             15.8                0  # AU
      85      85    11         0                0             18.3                0  # AU
      86      86    11         0             2.88             18.3                0  # AU
      87      87    11         0             5.76             18.3                0  # AU
      88      88    11         0             8.64             18.3                0  # AU
      89      89    11         0            11.53             18.3                0  # AU
      90      90    11         0            14.41             18.3                0  # AU
      91      91    11         0            17.29             18.3                0  # AU
      92      92    11         0            20.17             18.3                0  # AU
      93      93    11         0            23.05             18.3                0  # AU
      94      94    11         0            25.93             18.3                0  # AU
      95      95    11         0            28.82             18.3                0  # AU
      96      96    11         0             31.7             18.3                0  # AU
      97      97    11         0             1.44            20.79                0  # AU
      98      98    11         0             4.32            20.79                0  # AU
      99      99    11         0              7.2            20.79                0  # AU
     100     100    11         0            10.08            20.79                0  # AU
     101     101    11         0            12.97            20.79                0  # AU
     102     102    11         0            15.85            20.79                0  # AU
     103     103    11         0            18.73            20.79                0  # AU
     104     104    11         0            21.61            20.79                0  # AU
     105     105    11         0            24.49            20.79                0  # AU
     106     106    11         0            27.37            20.79                0  # AU
     107     107    11         0            30.26            20.79                0  # AU
     108     108    11         0            33.14            20.79                0  # AU
     109     109    11         0                0            23.29                0  # AU
     110     110    11         0             2.88            23.29                0  # AU
     111     111    11         0             5.76            23.29                0  # AU
     112     112    11         0             8.64            23.29                0  # AU
     113     113    11         0            11.53            23.29                0  # AU
     114     114    11         0            14.41            23.29                0  # AU
     115     115    11         0            17.29            23.29                0  # AU
     116     116    11         0            20.17            23.29                0  # AU
     117     117    11         0            23.05            23.29                0  # AU
     118     118    11         0            25.93            23.29                0  # AU
     119     119    11         0            28.82            23.29                0  # AU
     120     120    11         0             31.7            23.29                0  # AU
     121     121    11         0             1.44            25.79                0  # AU
     122     122    11         0             4.32            25.79                0  # AU
     123     123    11         0              7.2            25.79                0  # AU
     124     124    11         0            10.08            25.79                0  # AU
     125     125    11         0            12.97            25.79                0  # AU
     126     126    11         0            15.85            25.79                0  # AU
     127     127    11         0            18.73            25.79                0  # AU
     128     128    11         0            21.61            25.79                0  # AU
     129     129    11         0            24.49            25.79                0  # AU
     130     130    11         0            27.37            25.79                0  # AU
     131     131    11         0            30.26            25.79                0  # AU
     132     132    11         0            33.14            25.79                0  # AU
     133     133    11         0                0            28.28                0  # AU
     134     134    11         0             2.88            28.28                0  # AU
     135     135    11         0             5.76            28.28                0  # AU
     136     136    11         0             8.64            28.28                0  # AU
     137     137    11         0            11.53            28.28                0  # AU
     138     138    11         0            14.41            28.28                0  # AU
     139     139    11         0            17.29            28.28                0  # AU
     140     140    11         0            20.17            28.28                0  # AU
     141     141    11         0            23.05            28.28                0  # AU
     142     142    11         0            25.93            28.28                0  # AU
     143     143    11         0            28.82            28.28                0  # AU
     144     144    11         0             31.7            28.28                0  # AU
     145     145    11         0             1.44            30.78                0  # AU
     146     146    11         0             4.32            30.78                0  # AU
     147     147    11         0              7.2            30.78                0  # AU
     148     148    11         0            10.08            30.78                0  # AU
     149     149    11         0            12.97            30.78                0  # AU
     150     150    11         0            15.85            30.78                0  # AU
     151     151    11         0            18.73            30.78                0  # AU
     152     152    11         0            21.61            30.78                0  # AU
     153     153    11         0            24.49            30.78                0  # AU
     154     154    11         0            27.37            30.78                0  # AU
     155     155    11         0            30.26            30.78                0  # AU
     156     156    11         0            33.14            30.78                0  # AU
     157     157    11         0                0            33.27                0  # AU
     158     158    11         0             2.88            33.27                0  # AU
     159     159    11         0             5.76            33.27                0  # AU
     160     160    11         0             8.64            33.27                0  # AU
     161     161    11         0            11.53            33.27                0  # AU
     162     162    11         0            14.41            33.27                0  # AU
     163     163    11         0            17.29            33.27                0  # AU
     164     164    11         0            20.17            33.27                0  # AU
     165     165    11         0            23.05            33.27                0  # AU
     166     166    11         0            25.93            33.27                0  # AU
     167     167    11         0            28.82            33.27                0  # AU
     168     168    11         0             31.7            33.27                0  # AU
     169     169    11         0                0             1.66             2.36  # AU
     170     170    11         0             2.88             1.66             2.36  # AU
     171     171    11         0             5.76             1.66             2.36  # AU
     172     172    11         0             8.64             1.66             2.36  # AU
     173     173    11         0            11.53             1.66             2.36  # AU
     174     174    11         0            14.41             1.66             2.36  # AU
     175     175    11         0            17.29             1.66             2.36  # AU
     176     176    11         0            20.17             1.66             2.36  # AU
     177     177    11         0            23.05             1.66             2.36  # AU
     178     178    11         0            25.93             1.66             2.36  # AU
     179     179    11         0            28.82             1.66             2.36  # AU
     180     180    11         0             31.7             1.66             2.36  # AU
     181     181    11         0             1.44             4.16             2.36  # AU
     182     182    11         0             4.32             4.16             2.36  # AU
     183     183    11         0              7.2             4.16             2.36  # AU
     184     184    11         0            10.08             4.16             2.36  # AU
     185     185    11         0            12.97             4.16             2.36  # AU
     186     186    11         0            15.85             4.16             2.36  # AU
     187     187    11         0            18.73             4.16             2.36  # AU
     188     188    11         0            21.61             4.16             2.36  # AU
     189     189    11         0            24.49             4.16             2.36  # AU
     190     190    11         0            27.37             4.16             2.36  # AU
     191     191    11         0            30.26             4.16             2.36  # AU
     192     192    11         0            33.14             4.16             2.36  # AU
     193     193    11         0                0             6.65             2.36  # AU
     194     194    11         0             2.88             6.65             2.36  # AU
     195     195    11         0             5.76             6.65             2.36  # AU
     196     196    11         0             8.64             6.65             2.36  # AU
     197     197    11         0            11.53             6.65             2.36  # AU
     198     198    11         0            14.41             6.65             2.36  # AU
     199     199    11         0            17.29             6.65             2.36  # AU
     200     200    11         0            20.17             6.65             2.36  # AU
     201     201    11         0            23.05             6.65             2.36  # AU
     202     202    11         0            25.93             6.65             2.36  # AU
     203     203    11         0            28.82             6.65             2.36  # AU
     204     204    11         0             31.7             6.65             2.36  # AU
     205     205    11         0             1.44             9.15             2.36  # AU
     206     206    11         0             4.32             9.15             2.36  # AU
     207     207    11         0              7.2             9.15             2.36  # AU
     208     208    11         0            10.08             9.15             2.36  # AU
     209     209    11         0            12.97             9.15             2.36  # AU
     210     210    11         0            15.85             9.15             2.36  # AU
     211     211    11         0            18.73             9.15             2.36  # AU
     212     212    11         0            21.61             9.15             2.36  # AU
     213     213    11         0            24.49             9.15             2.36  # AU
     214     214    11         0            27.37             9.15             2.36  # AU
     215     215    11         0            30.26             9.15             2.36  # AU
     216     216    11         0            33.14             9.15             2.36  # AU
     217     217    11         0                0            11.64             2.36  # AU
     218     218    11         0             2.88            11.64             2.36  # AU
     219     219    11         0             5.76            11.64             2.36  # AU
     220     220    11         0             8.64            11.64             2.36  # AU
     221     221    11         0            11.53            11.64             2.36  # AU
     222     222    11         0            14.41            11.64             2.36  # AU
     223     223    11         0            17.29            11.64             2.36  # AU
     224     224    11         0            20.17            11.64             2.36  # AU
     225     225    11         0            23.05            11.64             2.36  # AU
     226     226    11         0            25.93            11.64             2.36  # AU
     227     227    11         0            28.82            11.64             2.36  # AU
     228     228    11         0             31.7            11.64             2.36  # AU
     229     229    11         0             1.44            14.14             2.36  # AU
     230     230    11         0             4.32            14.14             2.36  # AU
     231     231    11         0              7.2            14.14             2.36  # AU
     232     232    11         0            10.08            14.14             2.36  # AU
     233     233    11         0            12.97            14.14             2.36  # AU
     234     234    11         0            15.85            14.14             2.36  # AU
     235     235    11         0            18.73            14.14             2.36  # AU
     236     236    11         0            21.61            14.14             2.36  # AU
     237     237    11         0            24.49            14.14             2.36  # AU
     238     238    11         0            27.37            14.14             2.36  # AU
     239     239    11         0            30.26            14.14             2.36  # AU
     240     240    11         0            33.14            14.14             2.36  # AU
     241     241    11         0                0            16.64             2.36  # AU
     242     242    11         0             2.88            16.64             2.36  # AU
     243     243    11         0             5.76            16.64             2.36  # AU
     244     244    11         0             8.64            16.64             2.36  # AU
     245     245    11         0            11.53            16.64             2.36  # AU
     246     246    11         0            14.41            16.64             2.36  # AU
     247     247    11         0            17.29            16.64             2.36  # AU
     248     248    11         0            20.17            16.64             2.36  # AU
     249     249    11         0            23.05            16.64             2.36  # AU
     250     250    11         0            25.93            16.64             2.36  # AU
     251     251    11         0            28.82            16.64             2.36  # AU
     252     252    11         0             31.7            16.64             2.36  # AU
     253     253    11         0             1.44            19.13             2.36  # AU
     254     254    11         0             4.32            19.13             2.36  # AU
     255     255    11         0              7.2            19.13             2.36  # AU
     256     256    11         0            10.08            19.13             2.36  # AU
     257     257    11         0            12.97            19.13             2.36  # AU
     258     258    11         0            15.85            19.13             2.36  # AU
     259     259    11         0            18.73            19.13             2.36  # AU
     260     260    11         0            21.61            19.13             2.36  # AU
     261     261    11         0            24.49            19.13             2.36  # AU
     262     262    11         0            27.37            19.13             2.36  # AU
     263     263    11         0            30.26            19.13             2.36  # AU
     264     264    11         0            33.14            19.13             2.36  # AU
     265     265    11         0                0            21.63             2.36  # AU
     266     266    11         0             2.88            21.63             2.36  # AU
     267     267    11         0             5.76            21.63             2.36  # AU
     268     268    11         0             8.64            21.63             2.36  # AU
     269     269    11         0            11.53            21.63             2.36  # AU
     270     270    11         0            14.41            21.63             2.36  # AU
     271     271    11         0            17.29            21.63             2.36  # AU
     272     272    11         0            20.17            21.63             2.36  # AU
     273     273    11         0            23.05            21.63             2.36  # AU
     274     274    11         0            25.93            21.63             2.36  # AU
     275     275    11         0            28.82            21.63             2.36  # AU
     276     276    11         0             31.7            21.63             2.36  # AU
     277     277    11         0             1.44            24.12             2.36  # AU
     278     278    11         0             4.32            24.12             2.36  # AU
     279     279    11         0              7.2            24.12             2.36  # AU
     280     280    11         0            10.08            24.12             2.36  # AU
     281     281    11         0            12.97            24.12             2.36  # AU
     282     282    11         0            15.85            24.12             2.36  # AU
     283     283    11         0            18.73            24.12             2.36  # AU
     284     284    11         0            21.61            24.12             2.36  # AU
     285     285    11         0            24.49            24.12             2.36  # AU
     286     286    11         0            27.37            24.12             2.36  # AU
     287     287    11         0            30.26            24.12             2.36  # AU
     288     288    11         0            33.14            24.12             2.36  # AU
     289     289    11         0                0            26.62             2.36  # AU
     290     290    11         0             2.88            26.62             2.36  # AU
     291     291    11         0             5.76            26.62             2.36  # AU
     292     292    11         0             8.64            26.62             2.36  # AU
     293     293    11         0            11.53            26.62             2.36  # AU
     294     294    11         0            14.41            26.62             2.36  # AU
     295     295    11         0            17.29            26.62             2.36  # AU
     296     296    11         0            20.17            26.62             2.36  # AU
     297     297    11         0            23.05            26.62             2.36  # AU
     298     298    11         0            25.93            26.62             2.36  # AU
     299     299    11         0            28.82            26.62             2.36  # AU
     300     300    11         0             31.7            26.62             2.36  # AU
     301     301    11         0             1.44            29.11             2.36  # AU
     302     302    11         0             4.32            29.11             2.36  # AU
     303     303    11         0              7.2            29.11             2.36  # AU
     304     304    11         0            10.08            29.11             2.36  # AU
     305     305    11         0            12.97            29.11             2.36  # AU
     306     306    11         0            15.85            29.11             2.36  # AU
     307     307    11         0            18.73            29.11             2.36  # AU
     308     308    11         0            21.61            29.11             2.36  # AU
     309     309    11         0            24.49            29.11             2.36  # AU
     310     310    11         0            27.37            29.11             2.36  # AU
     311     311    11         0            30.26            29.11             2.36  # AU
     312     312    11         0            33.14            29.11             2.36  # AU
     313     313    11         0                0            31.61             2.36  # AU